HEADER
"PSFversion" "1.00"
"design" "(\"ELEC403\" \"T3_a_DIFF_CHAN1\" \"schematic\" \"\")"
"simulator" "spectre"
"temperature" "27"
"host" ""
"date" "Apr  8 22:38:44 2019"
"title" ""
"analysisList" "()"
END
